   5   5   1   0
  0.3559346E+02  0.5624882E-09  0.5624882E-09  0.5624882E-09  0.5000000E-15
  1.000000000000000E-004
  CAR 
 HSE data project                        
     11.11093428    -24.32706566  301      2.76287070      1.00000000
    -24.327  0.0000E+00  0.0000E+00
    -24.209  0.0000E+00  0.0000E+00
    -24.091  0.0000E+00  0.0000E+00
    -23.973  0.0000E+00  0.0000E+00
    -23.855  0.0000E+00  0.0000E+00
    -23.736  0.0000E+00  0.0000E+00
    -23.618  0.0000E+00  0.0000E+00
    -23.500  0.9399E-15  0.1110E-15
    -23.382  0.7926E-12  0.9374E-13
    -23.264  0.3321E-09  0.3932E-10
    -23.146  0.7075E-07  0.8397E-08
    -23.028  0.7712E-05  0.9194E-06
    -22.910  0.4334E-03  0.5212E-04
    -22.791  0.1269E-01  0.1551E-02
    -22.673  0.1961E+00  0.2471E-01
    -22.555  0.1625E+01  0.2166E+00
    -22.437  0.7346E+01  0.1084E+01
    -22.319  0.1840E+02  0.3258E+01
    -22.201  0.2579E+02  0.6305E+01
    -22.083  0.2033E+02  0.8706E+01
    -21.965  0.9674E+01  0.9848E+01
    -21.846  0.5141E+01  0.1046E+02
    -21.728  0.5555E+01  0.1111E+02
    -21.610  0.4743E+01  0.1167E+02
    -21.492  0.2185E+01  0.1193E+02
    -21.374  0.5217E+00  0.1199E+02
    -21.256  0.6415E-01  0.1200E+02
    -21.138  0.4045E-02  0.1200E+02
    -21.020  0.1302E-03  0.1200E+02
    -20.901  0.2133E-05  0.1200E+02
    -20.783  0.1770E-07  0.1200E+02
    -20.665  0.7422E-10  0.1200E+02
    -20.547  0.1571E-12  0.1200E+02
    -20.429  0.0000E+00  0.1200E+02
    -20.311  0.0000E+00  0.1200E+02
    -20.193  0.0000E+00  0.1200E+02
    -20.075  0.0000E+00  0.1200E+02
    -19.956  0.0000E+00  0.1200E+02
    -19.838  0.0000E+00  0.1200E+02
    -19.720  0.0000E+00  0.1200E+02
    -19.602  0.0000E+00  0.1200E+02
    -19.484  0.0000E+00  0.1200E+02
    -19.366  0.0000E+00  0.1200E+02
    -19.248  0.0000E+00  0.1200E+02
    -19.129  0.0000E+00  0.1200E+02
    -19.011  0.0000E+00  0.1200E+02
    -18.893  0.0000E+00  0.1200E+02
    -18.775  0.0000E+00  0.1200E+02
    -18.657  0.0000E+00  0.1200E+02
    -18.539  0.0000E+00  0.1200E+02
    -18.421  0.0000E+00  0.1200E+02
    -18.303  0.0000E+00  0.1200E+02
    -18.184  0.0000E+00  0.1200E+02
    -18.066  0.0000E+00  0.1200E+02
    -17.948  0.0000E+00  0.1200E+02
    -17.830  0.0000E+00  0.1200E+02
    -17.712  0.0000E+00  0.1200E+02
    -17.594  0.0000E+00  0.1200E+02
    -17.476  0.0000E+00  0.1200E+02
    -17.358  0.0000E+00  0.1200E+02
    -17.239  0.0000E+00  0.1200E+02
    -17.121  0.0000E+00  0.1200E+02
    -17.003  0.0000E+00  0.1200E+02
    -16.885  0.0000E+00  0.1200E+02
    -16.767  0.0000E+00  0.1200E+02
    -16.649  0.4511E-14  0.1200E+02
    -16.531  0.2661E-11  0.1200E+02
    -16.413  0.7980E-09  0.1200E+02
    -16.294  0.1224E-06  0.1200E+02
    -16.176  0.9677E-05  0.1200E+02
    -16.058  0.3978E-03  0.1200E+02
    -15.940  0.8614E-02  0.1200E+02
    -15.822  0.9983E-01  0.1201E+02
    -15.704  0.6313E+00  0.1209E+02
    -15.586  0.2223E+01  0.1235E+02
    -15.468  0.4439E+01  0.1287E+02
    -15.349  0.5184E+01  0.1349E+02
    -15.231  0.4235E+01  0.1399E+02
    -15.113  0.4293E+01  0.1449E+02
    -14.995  0.5535E+01  0.1515E+02
    -14.877  0.5667E+01  0.1582E+02
    -14.759  0.5468E+01  0.1646E+02
    -14.641  0.5754E+01  0.1714E+02
    -14.523  0.4523E+01  0.1768E+02
    -14.404  0.2098E+01  0.1793E+02
    -14.286  0.5470E+00  0.1799E+02
    -14.168  0.7940E-01  0.1800E+02
    -14.050  0.6355E-02  0.1800E+02
    -13.932  0.2761E-03  0.1800E+02
    -13.814  0.6393E-05  0.1800E+02
    -13.696  0.7761E-07  0.1800E+02
    -13.578  0.4875E-09  0.1800E+02
    -13.459  0.1569E-11  0.1800E+02
    -13.341  0.2506E-14  0.1800E+02
    -13.223  0.0000E+00  0.1800E+02
    -13.105  0.0000E+00  0.1800E+02
    -12.987  0.0000E+00  0.1800E+02
    -12.869  0.0000E+00  0.1800E+02
    -12.751  0.0000E+00  0.1800E+02
    -12.633  0.0000E+00  0.1800E+02
    -12.514  0.0000E+00  0.1800E+02
    -12.396  0.0000E+00  0.1800E+02
    -12.278  0.0000E+00  0.1800E+02
    -12.160  0.0000E+00  0.1800E+02
    -12.042  0.0000E+00  0.1800E+02
    -11.924  0.0000E+00  0.1800E+02
    -11.806  0.0000E+00  0.1800E+02
    -11.688  0.0000E+00  0.1800E+02
    -11.569  0.0000E+00  0.1800E+02
    -11.451  0.0000E+00  0.1800E+02
    -11.333  0.0000E+00  0.1800E+02
    -11.215  0.0000E+00  0.1800E+02
    -11.097  0.0000E+00  0.1800E+02
    -10.979  0.0000E+00  0.1800E+02
    -10.861  0.0000E+00  0.1800E+02
    -10.742  0.0000E+00  0.1800E+02
    -10.624  0.0000E+00  0.1800E+02
    -10.506  0.0000E+00  0.1800E+02
    -10.388  0.0000E+00  0.1800E+02
    -10.270  0.0000E+00  0.1800E+02
    -10.152  0.0000E+00  0.1800E+02
    -10.034  0.0000E+00  0.1800E+02
     -9.916  0.0000E+00  0.1800E+02
     -9.797  0.0000E+00  0.1800E+02
     -9.679  0.0000E+00  0.1800E+02
     -9.561  0.0000E+00  0.1800E+02
     -9.443  0.0000E+00  0.1800E+02
     -9.325  0.0000E+00  0.1800E+02
     -9.207  0.0000E+00  0.1800E+02
     -9.089  0.0000E+00  0.1800E+02
     -8.971  0.0000E+00  0.1800E+02
     -8.852  0.0000E+00  0.1800E+02
     -8.734  0.3468E-13  0.1800E+02
     -8.616  0.1886E-10  0.1800E+02
     -8.498  0.5259E-08  0.1800E+02
     -8.380  0.7591E-06  0.1800E+02
     -8.262  0.5707E-04  0.1800E+02
     -8.144  0.2250E-02  0.1800E+02
     -8.026  0.4680E-01  0.1801E+02
     -7.907  0.5165E+00  0.1807E+02
     -7.789  0.3039E+01  0.1843E+02
     -7.671  0.9563E+01  0.1956E+02
     -7.553  0.1615E+02  0.2146E+02
     -7.435  0.1473E+02  0.2320E+02
     -7.317  0.7414E+01  0.2408E+02
     -7.199  0.2326E+01  0.2435E+02
     -7.081  0.7820E+00  0.2445E+02
     -6.962  0.5652E+00  0.2451E+02
     -6.844  0.6889E+00  0.2459E+02
     -6.726  0.9518E+00  0.2471E+02
     -6.608  0.1042E+01  0.2483E+02
     -6.490  0.8725E+00  0.2493E+02
     -6.372  0.6883E+00  0.2501E+02
     -6.254  0.5737E+00  0.2508E+02
     -6.136  0.5080E+00  0.2514E+02
     -6.017  0.5095E+00  0.2520E+02
     -5.899  0.6237E+00  0.2528E+02
     -5.781  0.7965E+00  0.2537E+02
     -5.663  0.8139E+00  0.2547E+02
     -5.545  0.6488E+00  0.2554E+02
     -5.427  0.4923E+00  0.2560E+02
     -5.309  0.3941E+00  0.2565E+02
     -5.191  0.3141E+00  0.2568E+02
     -5.072  0.2761E+00  0.2572E+02
     -4.954  0.2711E+00  0.2575E+02
     -4.836  0.2745E+00  0.2578E+02
     -4.718  0.2871E+00  0.2582E+02
     -4.600  0.2829E+00  0.2585E+02
     -4.482  0.2936E+00  0.2588E+02
     -4.364  0.4923E+00  0.2594E+02
     -4.246  0.1161E+01  0.2608E+02
     -4.127  0.2474E+01  0.2637E+02
     -4.009  0.3873E+01  0.2683E+02
     -3.891  0.4284E+01  0.2733E+02
     -3.773  0.3474E+01  0.2774E+02
     -3.655  0.2322E+01  0.2802E+02
     -3.537  0.1593E+01  0.2821E+02
     -3.419  0.1292E+01  0.2836E+02
     -3.301  0.1144E+01  0.2849E+02
     -3.182  0.1071E+01  0.2862E+02
     -3.064  0.1102E+01  0.2875E+02
     -2.946  0.1266E+01  0.2890E+02
     -2.828  0.1964E+01  0.2913E+02
     -2.710  0.3930E+01  0.2960E+02
     -2.592  0.6665E+01  0.3038E+02
     -2.474  0.8059E+01  0.3134E+02
     -2.356  0.7838E+01  0.3226E+02
     -2.237  0.7896E+01  0.3320E+02
     -2.119  0.9374E+01  0.3430E+02
     -2.001  0.1081E+02  0.3558E+02
     -1.883  0.1020E+02  0.3678E+02
     -1.765  0.9144E+01  0.3786E+02
     -1.647  0.9146E+01  0.3895E+02
     -1.529  0.9011E+01  0.4001E+02
     -1.410  0.7802E+01  0.4093E+02
     -1.292  0.6069E+01  0.4165E+02
     -1.174  0.4178E+01  0.4214E+02
     -1.056  0.2179E+01  0.4240E+02
     -0.938  0.8011E+00  0.4249E+02
     -0.820  0.3283E+00  0.4253E+02
     -0.702  0.2706E+00  0.4256E+02
     -0.584  0.2683E+00  0.4260E+02
     -0.465  0.2907E+00  0.4263E+02
     -0.347  0.4496E+00  0.4268E+02
     -0.229  0.7679E+00  0.4277E+02
     -0.111  0.9538E+00  0.4289E+02
      0.007  0.8077E+00  0.4298E+02
      0.125  0.5440E+00  0.4305E+02
      0.243  0.4003E+00  0.4309E+02
      0.361  0.3919E+00  0.4314E+02
      0.480  0.4254E+00  0.4319E+02
      0.598  0.4438E+00  0.4324E+02
      0.716  0.4890E+00  0.4330E+02
      0.834  0.6408E+00  0.4338E+02
      0.952  0.8139E+00  0.4347E+02
      1.070  0.7846E+00  0.4357E+02
      1.188  0.5834E+00  0.4363E+02
      1.306  0.4143E+00  0.4368E+02
      1.425  0.3287E+00  0.4372E+02
      1.543  0.2789E+00  0.4375E+02
      1.661  0.2682E+00  0.4379E+02
      1.779  0.3327E+00  0.4383E+02
      1.897  0.4219E+00  0.4388E+02
      2.015  0.4540E+00  0.4393E+02
      2.133  0.3607E+00  0.4397E+02
      2.251  0.1799E+00  0.4399E+02
      2.370  0.5063E-01  0.4400E+02
      2.488  0.7634E-02  0.4400E+02
      2.606  0.6016E-03  0.4400E+02
      2.724  0.2449E-04  0.4400E+02
      2.842  0.2576E-05  0.4400E+02
      2.960  0.7928E-04  0.4400E+02
      3.078  0.1572E-02  0.4400E+02
      3.196  0.1650E-01  0.4400E+02
      3.315  0.9606E-01  0.4401E+02
      3.433  0.3371E+00  0.4405E+02
      3.551  0.7965E+00  0.4415E+02
      3.669  0.1374E+01  0.4431E+02
      3.787  0.1786E+01  0.4452E+02
      3.905  0.1876E+01  0.4474E+02
      4.023  0.1868E+01  0.4496E+02
      4.141  0.1953E+01  0.4519E+02
      4.260  0.2009E+01  0.4543E+02
      4.378  0.1915E+01  0.4566E+02
      4.496  0.1739E+01  0.4586E+02
      4.614  0.1600E+01  0.4605E+02
      4.732  0.1485E+01  0.4623E+02
      4.850  0.1275E+01  0.4638E+02
      4.968  0.1002E+01  0.4650E+02
      5.086  0.8304E+00  0.4659E+02
      5.205  0.7446E+00  0.4668E+02
      5.323  0.7520E+00  0.4677E+02
      5.441  0.9498E+00  0.4688E+02
      5.559  0.1231E+01  0.4703E+02
      5.677  0.1307E+01  0.4718E+02
      5.795  0.1165E+01  0.4732E+02
      5.913  0.1026E+01  0.4744E+02
      6.031  0.9098E+00  0.4755E+02
      6.150  0.8315E+00  0.4765E+02
      6.268  0.1049E+01  0.4777E+02
      6.386  0.1744E+01  0.4798E+02
      6.504  0.2448E+01  0.4827E+02
      6.622  0.2522E+01  0.4856E+02
      6.740  0.2226E+01  0.4883E+02
      6.858  0.2192E+01  0.4909E+02
      6.977  0.2546E+01  0.4939E+02
      7.095  0.3342E+01  0.4978E+02
      7.213  0.4751E+01  0.5034E+02
      7.331  0.6069E+01  0.5106E+02
      7.449  0.6077E+01  0.5178E+02
      7.567  0.5064E+01  0.5238E+02
      7.685  0.4293E+01  0.5288E+02
      7.803  0.3891E+01  0.5334E+02
      7.922  0.3538E+01  0.5376E+02
      8.040  0.3378E+01  0.5416E+02
      8.158  0.3223E+01  0.5454E+02
      8.276  0.2816E+01  0.5487E+02
      8.394  0.2314E+01  0.5515E+02
      8.512  0.1886E+01  0.5537E+02
      8.630  0.1635E+01  0.5556E+02
      8.748  0.1450E+01  0.5573E+02
      8.867  0.1107E+01  0.5586E+02
      8.985  0.6493E+00  0.5594E+02
      9.103  0.2995E+00  0.5598E+02
      9.221  0.1312E+00  0.5599E+02
      9.339  0.5174E-01  0.5600E+02
      9.457  0.1335E-01  0.5600E+02
      9.575  0.1891E-02  0.5600E+02
      9.693  0.1395E-03  0.5600E+02
      9.812  0.5273E-05  0.5600E+02
      9.930  0.1016E-06  0.5600E+02
     10.048  0.9922E-09  0.5600E+02
     10.166  0.4900E-11  0.5600E+02
     10.284  0.1222E-13  0.5600E+02
     10.402  0.0000E+00  0.5600E+02
     10.520  0.0000E+00  0.5600E+02
     10.638  0.0000E+00  0.5600E+02
     10.757  0.0000E+00  0.5600E+02
     10.875  0.0000E+00  0.5600E+02
     10.993  0.0000E+00  0.5600E+02
     11.111  0.0000E+00  0.5600E+02
     11.11093428    -24.32706566  301      2.76287070      1.00000000
    -24.327  0.0000E+00  0.0000E+00  0.0000E+00  0.0000E+00  0.0000E+00  0.0000E+00  0.0000E+00  0.0000E+00  0.0000E+00
    -24.209  0.0000E+00  0.0000E+00  0.0000E+00  0.0000E+00  0.0000E+00  0.0000E+00  0.0000E+00  0.0000E+00  0.0000E+00
    -24.091  0.0000E+00  0.0000E+00  0.0000E+00  0.0000E+00  0.0000E+00  0.0000E+00  0.0000E+00  0.0000E+00  0.0000E+00
    -23.973  0.0000E+00  0.0000E+00  0.0000E+00  0.0000E+00  0.0000E+00  0.0000E+00  0.0000E+00  0.0000E+00  0.0000E+00
    -23.855  0.0000E+00  0.0000E+00  0.0000E+00  0.0000E+00  0.0000E+00  0.0000E+00  0.0000E+00  0.0000E+00  0.0000E+00
    -23.736  0.0000E+00  0.0000E+00  0.0000E+00  0.0000E+00  0.0000E+00  0.0000E+00  0.0000E+00  0.0000E+00  0.0000E+00
    -23.618  0.0000E+00  0.0000E+00  0.0000E+00  0.0000E+00  0.0000E+00  0.0000E+00  0.0000E+00  0.0000E+00  0.0000E+00
    -23.500  0.9771E-22  0.1779E-22  0.7892E-25  0.7910E-24  0.6451E-24  0.3376E-24  0.2739E-24  0.1756E-24  0.4893E-23
    -23.382  0.3342E-17  0.1363E-19  0.4914E-20  0.3035E-20  0.7418E-21  0.2985E-21  0.2972E-21  0.2386E-21  0.3517E-20
    -23.264  0.1636E-14  0.5528E-17  0.2394E-17  0.1487E-17  0.3345E-18  0.1307E-18  0.1322E-18  0.1161E-18  0.1425E-17
    -23.146  0.4051E-12  0.1132E-14  0.5903E-15  0.3722E-15  0.7729E-16  0.2953E-16  0.3044E-16  0.2935E-16  0.2913E-15
    -23.028  0.5077E-10  0.1177E-12  0.7395E-13  0.4777E-13  0.9225E-14  0.3539E-14  0.3673E-14  0.3928E-14  0.3010E-13
    -22.910  0.3232E-08  0.6252E-11  0.4729E-11  0.3160E-11  0.5733E-12  0.2295E-12  0.2352E-12  0.2797E-12  0.1579E-11
    -22.791  0.1050E-06  0.1713E-09  0.1553E-09  0.1083E-09  0.1873E-10  0.8213E-11  0.8100E-11  0.1061E-10  0.4220E-10
    -22.673  0.1751E-05  0.2462E-08  0.2635E-08  0.1936E-08  0.3255E-09  0.1640E-09  0.1514E-09  0.2143E-09  0.5775E-09
    -22.555  0.1518E-04  0.1905E-07  0.2329E-07  0.1817E-07  0.3043E-08  0.1828E-08  0.1543E-08  0.2304E-08  0.4071E-08
    -22.437  0.7818E-04  0.8227E-07  0.1080E-06  0.9005E-07  0.1548E-07  0.1128E-07  0.8552E-08  0.1316E-07  0.1488E-07
    -22.319  0.6790E-03  0.2065E-06  0.2652E-06  0.2366E-06  0.4306E-07  0.3800E-07  0.2567E-07  0.3995E-07  0.2843E-07
    -22.201  0.1303E-01  0.3080E-06  0.3467E-06  0.3304E-06  0.6562E-07  0.6909E-07  0.4298E-07  0.6438E-07  0.2892E-07
    -22.083  0.1619E+00  0.2710E-06  0.2427E-06  0.2457E-06  0.5457E-07  0.6715E-07  0.5963E-07  0.5515E-07  0.1930E-07
    -21.965  0.1047E+01  0.1411E-06  0.9182E-07  0.9959E-07  0.2491E-07  0.3486E-07  0.1746E-06  0.2573E-07  0.2969E-07
    -21.846  0.3493E+01  0.5862E-07  0.2061E-07  0.3023E-07  0.7373E-08  0.1046E-07  0.5302E-06  0.8691E-08  0.8380E-07
    -21.728  0.6025E+01  0.4298E-07  0.5830E-08  0.1975E-07  0.3338E-08  0.3242E-08  0.9026E-06  0.5479E-08  0.1416E-06
    -21.610  0.5381E+01  0.3386E-07  0.3561E-08  0.1583E-07  0.2362E-08  0.1814E-08  0.8002E-06  0.4286E-08  0.1248E-06
    -21.492  0.2488E+01  0.1539E-07  0.1603E-08  0.7272E-08  0.1068E-08  0.7981E-09  0.3674E-06  0.1966E-08  0.5695E-07
    -21.374  0.5941E+00  0.3652E-08  0.3837E-09  0.1738E-08  0.2543E-09  0.1899E-09  0.8714E-07  0.4703E-09  0.1343E-07
    -21.256  0.7305E-01  0.4465E-09  0.4738E-10  0.2140E-09  0.3119E-10  0.2336E-10  0.1064E-07  0.5799E-10  0.1630E-08
    -21.138  0.4606E-02  0.2799E-10  0.3000E-11  0.1351E-10  0.1962E-11  0.1473E-11  0.6662E-09  0.3666E-11  0.1014E-09
    -21.020  0.1483E-03  0.8959E-12  0.9700E-13  0.4354E-12  0.6303E-13  0.4746E-13  0.2130E-10  0.1184E-12  0.3222E-11
    -20.901  0.2429E-05  0.1458E-13  0.1595E-14  0.7137E-14  0.1030E-14  0.7775E-15  0.3463E-12  0.1943E-14  0.5207E-13
    -20.783  0.2016E-07  0.1203E-15  0.1329E-16  0.5929E-16  0.8523E-17  0.6455E-17  0.2853E-14  0.1617E-16  0.4263E-15
    -20.665  0.8452E-10  0.5013E-18  0.5596E-19  0.2488E-18  0.3564E-19  0.2707E-19  0.1188E-16  0.6797E-19  0.1764E-17
    -20.547  0.1789E-12  0.1054E-20  0.1188E-21  0.5269E-21  0.7527E-22  0.5731E-22  0.2497E-19  0.1442E-21  0.3686E-20
    -20.429  0.0000E+00  0.0000E+00  0.0000E+00  0.0000E+00  0.0000E+00  0.0000E+00  0.0000E+00  0.0000E+00  0.0000E+00
    -20.311  0.0000E+00  0.0000E+00  0.0000E+00  0.0000E+00  0.0000E+00  0.0000E+00  0.0000E+00  0.0000E+00  0.0000E+00
    -20.193  0.0000E+00  0.0000E+00  0.0000E+00  0.0000E+00  0.0000E+00  0.0000E+00  0.0000E+00  0.0000E+00  0.0000E+00
    -20.075  0.0000E+00  0.0000E+00  0.0000E+00  0.0000E+00  0.0000E+00  0.0000E+00  0.0000E+00  0.0000E+00  0.0000E+00
    -19.956  0.0000E+00  0.0000E+00  0.0000E+00  0.0000E+00  0.0000E+00  0.0000E+00  0.0000E+00  0.0000E+00  0.0000E+00
    -19.838  0.0000E+00  0.0000E+00  0.0000E+00  0.0000E+00  0.0000E+00  0.0000E+00  0.0000E+00  0.0000E+00  0.0000E+00
    -19.720  0.0000E+00  0.0000E+00  0.0000E+00  0.0000E+00  0.0000E+00  0.0000E+00  0.0000E+00  0.0000E+00  0.0000E+00
    -19.602  0.0000E+00  0.0000E+00  0.0000E+00  0.0000E+00  0.0000E+00  0.0000E+00  0.0000E+00  0.0000E+00  0.0000E+00
    -19.484  0.0000E+00  0.0000E+00  0.0000E+00  0.0000E+00  0.0000E+00  0.0000E+00  0.0000E+00  0.0000E+00  0.0000E+00
    -19.366  0.0000E+00  0.0000E+00  0.0000E+00  0.0000E+00  0.0000E+00  0.0000E+00  0.0000E+00  0.0000E+00  0.0000E+00
    -19.248  0.0000E+00  0.0000E+00  0.0000E+00  0.0000E+00  0.0000E+00  0.0000E+00  0.0000E+00  0.0000E+00  0.0000E+00
    -19.129  0.0000E+00  0.0000E+00  0.0000E+00  0.0000E+00  0.0000E+00  0.0000E+00  0.0000E+00  0.0000E+00  0.0000E+00
    -19.011  0.0000E+00  0.0000E+00  0.0000E+00  0.0000E+00  0.0000E+00  0.0000E+00  0.0000E+00  0.0000E+00  0.0000E+00
    -18.893  0.0000E+00  0.0000E+00  0.0000E+00  0.0000E+00  0.0000E+00  0.0000E+00  0.0000E+00  0.0000E+00  0.0000E+00
    -18.775  0.0000E+00  0.0000E+00  0.0000E+00  0.0000E+00  0.0000E+00  0.0000E+00  0.0000E+00  0.0000E+00  0.0000E+00
    -18.657  0.0000E+00  0.0000E+00  0.0000E+00  0.0000E+00  0.0000E+00  0.0000E+00  0.0000E+00  0.0000E+00  0.0000E+00
    -18.539  0.0000E+00  0.0000E+00  0.0000E+00  0.0000E+00  0.0000E+00  0.0000E+00  0.0000E+00  0.0000E+00  0.0000E+00
    -18.421  0.0000E+00  0.0000E+00  0.0000E+00  0.0000E+00  0.0000E+00  0.0000E+00  0.0000E+00  0.0000E+00  0.0000E+00
    -18.303  0.0000E+00  0.0000E+00  0.0000E+00  0.0000E+00  0.0000E+00  0.0000E+00  0.0000E+00  0.0000E+00  0.0000E+00
    -18.184  0.0000E+00  0.0000E+00  0.0000E+00  0.0000E+00  0.0000E+00  0.0000E+00  0.0000E+00  0.0000E+00  0.0000E+00
    -18.066  0.0000E+00  0.0000E+00  0.0000E+00  0.0000E+00  0.0000E+00  0.0000E+00  0.0000E+00  0.0000E+00  0.0000E+00
    -17.948  0.0000E+00  0.0000E+00  0.0000E+00  0.0000E+00  0.0000E+00  0.0000E+00  0.0000E+00  0.0000E+00  0.0000E+00
    -17.830  0.0000E+00  0.0000E+00  0.0000E+00  0.0000E+00  0.0000E+00  0.0000E+00  0.0000E+00  0.0000E+00  0.0000E+00
    -17.712  0.0000E+00  0.0000E+00  0.0000E+00  0.0000E+00  0.0000E+00  0.0000E+00  0.0000E+00  0.0000E+00  0.0000E+00
    -17.594  0.0000E+00  0.0000E+00  0.0000E+00  0.0000E+00  0.0000E+00  0.0000E+00  0.0000E+00  0.0000E+00  0.0000E+00
    -17.476  0.0000E+00  0.0000E+00  0.0000E+00  0.0000E+00  0.0000E+00  0.0000E+00  0.0000E+00  0.0000E+00  0.0000E+00
    -17.358  0.0000E+00  0.0000E+00  0.0000E+00  0.0000E+00  0.0000E+00  0.0000E+00  0.0000E+00  0.0000E+00  0.0000E+00
    -17.239  0.0000E+00  0.0000E+00  0.0000E+00  0.0000E+00  0.0000E+00  0.0000E+00  0.0000E+00  0.0000E+00  0.0000E+00
    -17.121  0.0000E+00  0.0000E+00  0.0000E+00  0.0000E+00  0.0000E+00  0.0000E+00  0.0000E+00  0.0000E+00  0.0000E+00
    -17.003  0.0000E+00  0.0000E+00  0.0000E+00  0.0000E+00  0.0000E+00  0.0000E+00  0.0000E+00  0.0000E+00  0.0000E+00
    -16.885  0.0000E+00  0.0000E+00  0.0000E+00  0.0000E+00  0.0000E+00  0.0000E+00  0.0000E+00  0.0000E+00  0.0000E+00
    -16.767  0.0000E+00  0.0000E+00  0.0000E+00  0.0000E+00  0.0000E+00  0.0000E+00  0.0000E+00  0.0000E+00  0.0000E+00
    -16.649  0.5103E-17  0.2395E-18  0.3279E-20  0.3876E-19  0.5639E-21  0.2162E-22  0.1030E-19  0.1003E-22  0.6843E-21
    -16.531  0.2921E-14  0.1693E-15  0.2112E-17  0.2486E-16  0.7119E-18  0.2520E-19  0.5904E-17  0.7693E-20  0.3921E-18
    -16.413  0.8487E-12  0.5943E-13  0.6951E-15  0.8121E-14  0.3140E-15  0.1038E-16  0.1719E-14  0.2804E-17  0.1141E-15
    -16.294  0.1250E-09  0.1072E-10  0.1172E-12  0.1362E-11  0.7389E-13  0.2222E-14  0.2538E-12  0.5290E-15  0.1683E-13
    -16.176  0.9356E-08  0.9961E-09  0.1018E-10  0.1181E-09  0.9311E-11  0.2480E-12  0.1906E-10  0.5199E-13  0.1263E-11
    -16.058  0.3577E-06  0.4787E-07  0.4585E-09  0.5333E-08  0.6285E-09  0.1446E-10  0.7321E-09  0.2678E-11  0.4845E-10
    -15.940  0.7018E-05  0.1194E-05  0.1077E-07  0.1264E-06  0.2266E-07  0.4417E-09  0.1445E-07  0.7277E-10  0.9549E-09
    -15.822  0.7105E-04  0.1554E-04  0.1331E-06  0.1590E-05  0.4350E-06  0.7089E-08  0.1475E-06  0.1049E-08  0.9726E-08
    -15.704  0.3734E-03  0.1060E-03  0.8708E-06  0.1070E-04  0.4424E-05  0.6022E-07  0.7844E-06  0.8072E-08  0.5155E-07
    -15.586  0.1025E-02  0.3808E-03  0.3048E-05  0.3888E-04  0.2376E-04  0.2825E-06  0.2191E-05  0.3325E-07  0.1434E-06
    -15.468  0.1477E-02  0.7265E-03  0.5870E-05  0.7680E-04  0.6724E-04  0.9379E-06  0.3258E-05  0.7381E-07  0.2180E-06
    -15.349  0.1129E-02  0.7578E-03  0.7645E-05  0.8275E-04  0.1000E-03  0.3841E-05  0.2842E-05  0.9198E-07  0.2761E-06
    -15.231  0.4857E-03  0.5310E-03  0.1359E-04  0.4922E-04  0.7844E-04  0.1604E-04  0.3197E-05  0.9284E-07  0.8571E-06
    -15.113  0.2137E-03  0.4903E-03  0.3100E-04  0.2040E-04  0.3350E-04  0.4095E-04  0.8451E-05  0.3273E-06  0.2965E-05
    -14.995  0.2558E-03  0.5707E-03  0.4740E-04  0.3542E-04  0.9724E-05  0.5565E-04  0.1690E-04  0.2599E-05  0.6384E-05
    -14.877  0.3782E-03  0.4406E-03  0.4973E-04  0.1593E-03  0.3412E-05  0.3953E-04  0.1916E-04  0.1365E-04  0.1072E-04
    -14.759  0.5830E-03  0.1987E-03  0.5683E-04  0.4369E-03  0.1392E-05  0.1472E-04  0.1456E-04  0.3823E-04  0.2002E-04
    -14.641  0.7582E-03  0.6709E-04  0.6700E-04  0.6354E-03  0.5139E-06  0.2992E-05  0.1104E-04  0.5574E-04  0.3236E-04
    -14.523  0.6106E-03  0.2967E-04  0.5097E-04  0.4847E-03  0.2238E-06  0.4382E-06  0.8226E-05  0.4219E-04  0.3258E-04
    -14.404  0.2753E-03  0.1350E-04  0.2122E-04  0.1941E-03  0.8691E-07  0.8775E-07  0.4151E-05  0.1657E-04  0.1853E-04
    -14.286  0.6864E-04  0.3793E-05  0.4713E-05  0.4090E-04  0.2027E-07  0.1847E-07  0.1206E-05  0.3372E-05  0.5793E-05
    -14.168  0.9473E-05  0.5751E-06  0.5584E-06  0.4556E-05  0.2539E-08  0.2359E-08  0.1933E-06  0.3548E-06  0.9792E-06
    -14.050  0.7218E-06  0.4593E-07  0.3540E-07  0.2698E-06  0.1673E-09  0.1609E-09  0.1673E-07  0.1926E-07  0.8807E-07
    -13.932  0.3005E-07  0.1916E-08  0.1203E-08  0.8543E-08  0.5770E-11  0.5753E-11  0.7692E-09  0.5387E-09  0.4158E-08
    -13.814  0.6723E-09  0.4151E-10  0.2192E-10  0.1455E-09  0.1038E-12  0.1073E-12  0.1850E-10  0.7766E-11  0.1019E-09
    -13.696  0.7951E-11  0.4643E-12  0.2131E-12  0.1335E-11  0.9714E-15  0.1039E-14  0.2303E-12  0.5780E-13  0.1284E-11
    -13.578  0.4898E-13  0.2668E-14  0.1098E-14  0.6581E-14  0.4714E-17  0.5206E-17  0.1470E-14  0.2230E-15  0.8267E-14
    -13.459  0.1554E-15  0.7842E-17  0.2970E-17  0.1725E-16  0.1183E-19  0.1346E-19  0.4780E-17  0.4483E-18  0.2705E-16
    -13.341  0.2424E-18  0.1077E-19  0.3797E-20  0.1913E-19  0.9696E-23  0.1536E-22  0.7735E-20  0.1863E-21  0.4417E-19
    -13.223  0.0000E+00  0.0000E+00  0.0000E+00  0.0000E+00  0.0000E+00  0.0000E+00  0.0000E+00  0.0000E+00  0.0000E+00
    -13.105  0.0000E+00  0.0000E+00  0.0000E+00  0.0000E+00  0.0000E+00  0.0000E+00  0.0000E+00  0.0000E+00  0.0000E+00
    -12.987  0.0000E+00  0.0000E+00  0.0000E+00  0.0000E+00  0.0000E+00  0.0000E+00  0.0000E+00  0.0000E+00  0.0000E+00
    -12.869  0.0000E+00  0.0000E+00  0.0000E+00  0.0000E+00  0.0000E+00  0.0000E+00  0.0000E+00  0.0000E+00  0.0000E+00
    -12.751  0.0000E+00  0.0000E+00  0.0000E+00  0.0000E+00  0.0000E+00  0.0000E+00  0.0000E+00  0.0000E+00  0.0000E+00
    -12.633  0.0000E+00  0.0000E+00  0.0000E+00  0.0000E+00  0.0000E+00  0.0000E+00  0.0000E+00  0.0000E+00  0.0000E+00
    -12.514  0.0000E+00  0.0000E+00  0.0000E+00  0.0000E+00  0.0000E+00  0.0000E+00  0.0000E+00  0.0000E+00  0.0000E+00
    -12.396  0.0000E+00  0.0000E+00  0.0000E+00  0.0000E+00  0.0000E+00  0.0000E+00  0.0000E+00  0.0000E+00  0.0000E+00
    -12.278  0.0000E+00  0.0000E+00  0.0000E+00  0.0000E+00  0.0000E+00  0.0000E+00  0.0000E+00  0.0000E+00  0.0000E+00
    -12.160  0.0000E+00  0.0000E+00  0.0000E+00  0.0000E+00  0.0000E+00  0.0000E+00  0.0000E+00  0.0000E+00  0.0000E+00
    -12.042  0.0000E+00  0.0000E+00  0.0000E+00  0.0000E+00  0.0000E+00  0.0000E+00  0.0000E+00  0.0000E+00  0.0000E+00
    -11.924  0.0000E+00  0.0000E+00  0.0000E+00  0.0000E+00  0.0000E+00  0.0000E+00  0.0000E+00  0.0000E+00  0.0000E+00
    -11.806  0.0000E+00  0.0000E+00  0.0000E+00  0.0000E+00  0.0000E+00  0.0000E+00  0.0000E+00  0.0000E+00  0.0000E+00
    -11.688  0.0000E+00  0.0000E+00  0.0000E+00  0.0000E+00  0.0000E+00  0.0000E+00  0.0000E+00  0.0000E+00  0.0000E+00
    -11.569  0.0000E+00  0.0000E+00  0.0000E+00  0.0000E+00  0.0000E+00  0.0000E+00  0.0000E+00  0.0000E+00  0.0000E+00
    -11.451  0.0000E+00  0.0000E+00  0.0000E+00  0.0000E+00  0.0000E+00  0.0000E+00  0.0000E+00  0.0000E+00  0.0000E+00
    -11.333  0.0000E+00  0.0000E+00  0.0000E+00  0.0000E+00  0.0000E+00  0.0000E+00  0.0000E+00  0.0000E+00  0.0000E+00
    -11.215  0.0000E+00  0.0000E+00  0.0000E+00  0.0000E+00  0.0000E+00  0.0000E+00  0.0000E+00  0.0000E+00  0.0000E+00
    -11.097  0.0000E+00  0.0000E+00  0.0000E+00  0.0000E+00  0.0000E+00  0.0000E+00  0.0000E+00  0.0000E+00  0.0000E+00
    -10.979  0.0000E+00  0.0000E+00  0.0000E+00  0.0000E+00  0.0000E+00  0.0000E+00  0.0000E+00  0.0000E+00  0.0000E+00
    -10.861  0.0000E+00  0.0000E+00  0.0000E+00  0.0000E+00  0.0000E+00  0.0000E+00  0.0000E+00  0.0000E+00  0.0000E+00
    -10.742  0.0000E+00  0.0000E+00  0.0000E+00  0.0000E+00  0.0000E+00  0.0000E+00  0.0000E+00  0.0000E+00  0.0000E+00
    -10.624  0.0000E+00  0.0000E+00  0.0000E+00  0.0000E+00  0.0000E+00  0.0000E+00  0.0000E+00  0.0000E+00  0.0000E+00
    -10.506  0.0000E+00  0.0000E+00  0.0000E+00  0.0000E+00  0.0000E+00  0.0000E+00  0.0000E+00  0.0000E+00  0.0000E+00
    -10.388  0.0000E+00  0.0000E+00  0.0000E+00  0.0000E+00  0.0000E+00  0.0000E+00  0.0000E+00  0.0000E+00  0.0000E+00
    -10.270  0.0000E+00  0.0000E+00  0.0000E+00  0.0000E+00  0.0000E+00  0.0000E+00  0.0000E+00  0.0000E+00  0.0000E+00
    -10.152  0.0000E+00  0.0000E+00  0.0000E+00  0.0000E+00  0.0000E+00  0.0000E+00  0.0000E+00  0.0000E+00  0.0000E+00
    -10.034  0.0000E+00  0.0000E+00  0.0000E+00  0.0000E+00  0.0000E+00  0.0000E+00  0.0000E+00  0.0000E+00  0.0000E+00
     -9.916  0.0000E+00  0.0000E+00  0.0000E+00  0.0000E+00  0.0000E+00  0.0000E+00  0.0000E+00  0.0000E+00  0.0000E+00
     -9.797  0.0000E+00  0.0000E+00  0.0000E+00  0.0000E+00  0.0000E+00  0.0000E+00  0.0000E+00  0.0000E+00  0.0000E+00
     -9.679  0.0000E+00  0.0000E+00  0.0000E+00  0.0000E+00  0.0000E+00  0.0000E+00  0.0000E+00  0.0000E+00  0.0000E+00
     -9.561  0.0000E+00  0.0000E+00  0.0000E+00  0.0000E+00  0.0000E+00  0.0000E+00  0.0000E+00  0.0000E+00  0.0000E+00
     -9.443  0.0000E+00  0.0000E+00  0.0000E+00  0.0000E+00  0.0000E+00  0.0000E+00  0.0000E+00  0.0000E+00  0.0000E+00
     -9.325  0.0000E+00  0.0000E+00  0.0000E+00  0.0000E+00  0.0000E+00  0.0000E+00  0.0000E+00  0.0000E+00  0.0000E+00
     -9.207  0.0000E+00  0.0000E+00  0.0000E+00  0.0000E+00  0.0000E+00  0.0000E+00  0.0000E+00  0.0000E+00  0.0000E+00
     -9.089  0.0000E+00  0.0000E+00  0.0000E+00  0.0000E+00  0.0000E+00  0.0000E+00  0.0000E+00  0.0000E+00  0.0000E+00
     -8.971  0.0000E+00  0.0000E+00  0.0000E+00  0.0000E+00  0.0000E+00  0.0000E+00  0.0000E+00  0.0000E+00  0.0000E+00
     -8.852  0.0000E+00  0.0000E+00  0.0000E+00  0.0000E+00  0.0000E+00  0.0000E+00  0.0000E+00  0.0000E+00  0.0000E+00
     -8.734  0.9186E-20  0.2038E-13  0.1022E-14  0.5032E-14  0.4874E-20  0.5797E-21  0.2858E-20  0.3517E-21  0.8979E-20
     -8.616  0.5416E-17  0.1057E-10  0.7779E-12  0.3036E-11  0.2825E-17  0.3947E-18  0.1767E-17  0.2726E-18  0.5291E-17
     -8.498  0.1647E-14  0.2800E-08  0.2809E-09  0.9321E-09  0.8291E-15  0.1339E-15  0.5562E-15  0.9821E-16  0.1589E-14
     -8.380  0.2597E-12  0.3807E-06  0.5197E-07  0.1468E-06  0.1251E-12  0.2331E-13  0.9059E-13  0.1810E-13  0.2452E-12
     -8.262  0.2133E-10  0.2672E-04  0.4943E-05  0.1192E-04  0.9732E-11  0.2083E-11  0.7658E-11  0.1711E-11  0.1951E-10
     -8.144  0.9159E-09  0.9741E-03  0.2427E-03  0.5013E-03  0.3925E-09  0.9585E-10  0.3369E-09  0.8330E-10  0.8026E-09
     -8.026  0.2062E-07  0.1856E-01  0.6171E-02  0.1098E-01  0.8248E-08  0.2279E-08  0.7739E-08  0.2097E-08  0.1713E-07
     -7.907  0.2441E-06  0.1858E+00  0.8165E-01  0.1258E+00  0.9087E-07  0.2814E-07  0.9305E-07  0.2744E-07  0.1903E-06
     -7.789  0.1523E-05  0.9833E+00  0.5642E+00  0.7579E+00  0.5298E-06  0.1817E-06  0.5874E-06  0.1875E-06  0.1104E-05
     -7.671  0.5018E-05  0.2760E+01  0.2042E+01  0.2407E+01  0.1665E-05  0.6218E-06  0.1952E-05  0.6735E-06  0.3354E-05
     -7.553  0.8736E-05  0.4117E+01  0.3881E+01  0.4039E+01  0.2952E-05  0.1163E-05  0.3417E-05  0.1288E-05  0.5343E-05
     -7.435  0.8035E-05  0.3263E+01  0.3876E+01  0.3581E+01  0.3369E-05  0.1305E-05  0.3153E-05  0.1356E-05  0.4467E-05
     -7.317  0.3910E-05  0.1370E+01  0.2032E+01  0.1675E+01  0.3355E-05  0.1136E-05  0.1532E-05  0.8889E-06  0.1957E-05
     -7.199  0.1044E-05  0.3038E+00  0.5575E+00  0.4117E+00  0.3907E-05  0.1126E-05  0.3908E-06  0.5563E-06  0.4480E-06
     -7.081  0.2315E-06  0.3536E-01  0.7977E-01  0.5296E-01  0.5262E-05  0.1317E-05  0.5220E-07  0.5174E-06  0.5352E-07
     -6.962  0.1642E-06  0.2151E-02  0.5925E-02  0.3548E-02  0.8295E-05  0.1497E-05  0.3747E-08  0.5351E-06  0.3445E-08
     -6.844  0.2756E-06  0.7505E-04  0.2335E-03  0.1291E-03  0.1574E-04  0.1713E-05  0.3388E-09  0.6307E-06  0.2846E-09
     -6.726  0.4218E-06  0.1735E-04  0.1479E-04  0.1359E-04  0.2680E-04  0.1994E-05  0.3462E-09  0.7746E-06  0.2403E-09
     -6.608  0.5025E-06  0.3048E-04  0.1126E-04  0.1665E-04  0.3196E-04  0.1987E-05  0.5422E-09  0.6988E-06  0.2432E-09
     -6.490  0.7417E-06  0.5663E-04  0.1602E-04  0.2855E-04  0.2734E-04  0.2043E-05  0.8809E-09  0.6576E-06  0.1743E-09
     -6.372  0.1240E-05  0.9302E-04  0.2772E-04  0.4860E-04  0.2066E-04  0.2372E-05  0.1378E-08  0.9194E-06  0.1152E-09
     -6.254  0.1532E-05  0.1314E-03  0.3084E-04  0.6240E-04  0.1639E-04  0.2340E-05  0.2037E-08  0.9803E-06  0.9638E-10
     -6.136  0.1505E-05  0.1792E-03  0.2345E-04  0.6784E-04  0.1399E-04  0.2048E-05  0.2769E-08  0.6630E-06  0.1075E-09
     -6.017  0.1713E-05  0.2660E-03  0.3048E-04  0.8332E-04  0.1217E-04  0.1890E-05  0.3143E-08  0.6119E-06  0.2149E-09
     -5.899  0.2448E-05  0.4591E-03  0.5471E-04  0.1195E-03  0.1057E-04  0.1861E-05  0.3616E-08  0.9764E-06  0.7736E-09