    5    5    1    1
  0.3559346E+02  0.5624882E-09  0.5624882E-09  0.5624882E-09  0.5000000E-15
  1.000000000000000E-004
  CAR 
 HSE data project                        
     44     60     28
 
  0.0000000E+00  0.0000000E+00  0.0000000E+00  0.1666667E-01
    1      -22.325700   1.000000
    2      -22.285497   1.000000
    3      -22.234470   1.000000
    4      -22.221860   1.000000
    5      -22.192667   1.000000
    6      -21.751935   1.000000
    7      -15.538093   1.000000
    8      -14.977111   1.000000
    9      -14.577477   1.000000
   10       -7.570543   1.000000
   11       -7.568688   1.000000
   12       -7.564773   1.000000
   13       -4.269604   1.000000
   14       -4.130826   1.000000
   15       -3.955200   1.000000
   16       -3.758651   1.000000
   17       -2.056774   1.000000
   18       -2.029952   1.000000
   19       -1.831800   1.000000
   20       -1.702566   1.000000
   21       -1.521274   1.000000
   22       -1.492342   1.000000
   23        5.462168   0.000000
   24        6.392331   0.000000
   25        6.427894   0.000000
   26        7.238295   0.000000
   27        7.280649   0.000000
   28        7.443801   0.000000
 
  0.1111111E-02  0.5555556E-01  0.0000000E+00  0.1666667E-01
    1      -22.325720   1.000000
    2      -22.285629   1.000000
    3      -22.234647   1.000000
    4      -22.221782   1.000000
    5      -22.192559   1.000000
    6      -21.751859   1.000000
    7      -15.536472   1.000000
    8      -14.976690   1.000000
    9      -14.580663   1.000000
   10       -7.570267   1.000000
   11       -7.568163   1.000000
   12       -7.564119   1.000000
   13       -4.435361   1.000000
   14       -4.128957   1.000000
   15       -3.953066   1.000000
   16       -3.577370   1.000000
   17       -2.058157   1.000000
   18       -2.029556   1.000000
   19       -1.833835   1.000000
   20       -1.695410   1.000000
   21       -1.526522   1.000000
   22       -1.497786   1.000000
   23        5.493456   0.000000
   24        6.414299   0.000000
   25        6.453037   0.000000
   26        7.245994   0.000000
   27        7.250952   0.000000
   28        7.315252   0.000000
 
  0.2222222E-02  0.1111111E+00  0.0000000E+00  0.1666667E-01
    1      -22.325776   1.000000
    2      -22.286012   1.000000
    3      -22.235165   1.000000
    4      -22.221558   1.000000
    5      -22.192247   1.000000
    6      -21.751640   1.000000
    7      -15.531740   1.000000
    8      -14.975424   1.000000
    9      -14.589939   1.000000
   10       -7.569949   1.000000
   11       -7.566256   1.000000
   12       -7.562214   1.000000
   13       -4.706999   1.000000
   14       -4.123589   1.000000
   15       -3.946973   1.000000
   16       -3.268529   1.000000
   17       -2.062076   1.000000
   18       -2.027674   1.000000
   19       -1.839645   1.000000
   20       -1.665558   1.000000
   21       -1.541672   1.000000
   22       -1.513506   1.000000
   23        5.584568   0.000000
   24        6.476946   0.000000
   25        6.523491   0.000000
   26        7.286127   0.000000
   27        7.304090   0.000000
   28        7.463376   0.000000
 
  0.3333333E-02  0.1666667E+00  0.0000000E+00  0.1666667E-01
    1      -22.325888   1.000000
    2      -22.286619   1.000000
    3      -22.235982   1.000000
    4      -22.221214   1.000000
    5      -22.191769   1.000000
    6      -21.751301   1.000000
    7      -15.524329   1.000000
    8      -14.973344   1.000000
    9      -14.604447   1.000000
   10       -7.569902   1.000000
   11       -7.563051   1.000000
   12       -7.559270   1.000000
   13       -4.967703   1.000000
   14       -4.115361   1.000000
   15       -3.937638   1.000000
   16       -2.977993   1.000000
   17       -2.067817   1.000000
   18       -2.024222   1.000000
   19       -1.848291   1.000000
   20       -1.584960   1.000000
   21       -1.565010   1.000000
   22       -1.537706   1.000000
   23        5.725669   0.000000
   24        6.576515   0.000000
   25        6.629364   0.000000
   26        7.317286   0.000000
   27        7.351707   0.000000
   28        8.302576   0.000000
 
  0.4444444E-02  0.2222222E+00  0.0000000E+00  0.1666667E-01
    1      -22.326071   1.000000
    2      -22.287393   1.000000
    3      -22.237019   1.000000
    4      -22.220791   1.000000
    5      -22.191185   1.000000
    6      -21.750880   1.000000
    7      -15.514966   1.000000
    8      -14.970515   1.000000
    9      -14.622781   1.000000
   10       -7.570087   1.000000
   11       -7.559099   1.000000
   12       -7.555654   1.000000
   13       -5.196712   1.000000
   14       -4.105265   1.000000
   15       -3.926168   1.000000
   16       -2.765320   1.000000
   17       -2.074379   1.000000
   18       -2.023546   1.000000
   19       -1.858488   1.000000
   20       -1.593920   1.000000
   21       -1.567689   1.000000
   22       -1.413676   1.000000
   23        5.888032   0.000000
   24        6.630229   0.000000
   25        6.767628   0.000000
   26        6.908700   0.000000
   27        7.421303   0.000000
   28        7.555464   0.000000
 
  0.5555556E-02  0.2777778E+00  0.0000000E+00  0.1666667E-01
    1      -22.326306   1.000000
    2      -22.288251   1.000000
    3      -22.238162   1.000000
    4      -22.220342   1.000000
    5      -22.190563   1.000000
    6      -21.750424   1.000000
    7      -15.504651   1.000000
    8      -14.967088   1.000000
    9      -14.643041   1.000000
   10       -7.570473   1.000000
   11       -7.554968   1.000000
   12       -7.551805   1.000000
   13       -5.387515   1.000000
   14       -4.094480   1.000000
   15       -3.913898   1.000000
   16       -2.647411   1.000000
   17       -2.080663   1.000000
   18       -2.029882   1.000000
   19       -1.868660   1.000000
   20       -1.625109   1.000000
   21       -1.599941   1.000000
   22       -1.145170   1.000000
   23        5.909294   0.000000
   24        6.397143   0.000000
   25        6.952011   0.000000
   26        6.968704   0.000000
   27        7.439764   0.000000
   28        7.632246   0.000000
 
  0.6666667E-02  0.3333333E+00  0.0000000E+00  0.1666667E-01
    1      -22.326578   1.000000
    2      -22.289090   1.000000
    3      -22.239275   1.000000
    4      -22.219921   1.000000
    5      -22.189979   1.000000
    6      -21.749989   1.000000
    7      -15.494600   1.000000
    8      -14.963374   1.000000
    9      -14.662928   1.000000
   10       -7.570991   1.000000
   11       -7.551184   1.000000
   12       -7.548182   1.000000
   13       -5.537364   1.000000
   14       -4.084314   1.000000
   15       -3.902278   1.000000
   16       -2.596549   1.000000
   17       -2.085788   1.000000
   18       -2.041447   1.000000
   19       -1.877415   1.000000
   20       -1.655003   1.000000
   21       -1.630696   1.000000
   22       -0.827900   1.000000
   23        5.550314   0.000000
   24        6.489957   0.000000
   25        7.093626   0.000000
   26        7.161638   0.000000
   27        7.289054   0.000000
   28        8.260523   0.000000
 
  0.7777778E-02  0.3888889E+00  0.0000000E+00  0.1666667E-01
    1      -22.326831   1.000000
    2      -22.289797   1.000000
    3      -22.240210   1.000000
    4      -22.219580   1.000000
    5      -22.189502   1.000000
    6      -21.749629   1.000000
    7      -15.486132   1.000000
    8      -14.959890   1.000000
    9      -14.679873   1.000000
   10       -7.571518   1.000000
   11       -7.548176   1.000000
   12       -7.545215   1.000000
   13       -5.644999   1.000000
   14       -4.075997   1.000000
   15       -3.892670   1.000000
   16       -2.579389   1.000000
   17       -2.089311   1.000000
   18       -2.053547   1.000000
   19       -1.883820   1.000000
   20       -1.679946   1.000000
   21       -1.656131   1.000000
   22       -0.529073   1.000000
   23        5.157763   0.000000
   24        6.664414   0.000000
   25        7.235926   0.000000
   26        7.307362   0.000000
   27        7.448779   0.000000
   28        8.095609   0.000000
 
  0.8888889E-02  0.4444444E+00  0.0000000E+00  0.1666667E-01
    1      -22.327005   1.000000
    2      -22.290264   1.000000
    3      -22.240830   1.000000
    4      -22.219356   1.000000
    5      -22.189191   1.000000
    6      -21.749392   1.000000
    7      -15.480456   1.000000
    8      -14.957346   1.000000
    9      -14.691351   1.000000
   10       -7.571909   1.000000
   11       -7.546245   1.000000
   12       -7.543265   1.000000
   13       -5.709848   1.000000
   14       -4.070528   1.000000
   15       -3.886171   1.000000
   16       -2.575435   1.000000
   17       -2.091240   1.000000
   18       -2.062388   1.000000
   19       -1.887548   1.000000
   20       -1.696592   1.000000
   21       -1.672876   1.000000
   22       -0.313264   1.000000
   23        4.880234   0.000000
   24        6.821539   0.000000
   25        7.290282   0.000000
   26        7.327044   0.000000
   27        7.940359   0.000000
   28        8.788682   0.000000
 
  0.1000000E-01  0.5000000E+00  0.0000000E+00  0.1666667E-01
    1      -22.327063   1.000000
    2      -22.290418   1.000000
    3      -22.241041   1.000000
    4      -22.219274   1.000000
    5      -22.189079   1.000000
    6      -21.749310   1.000000
    7      -15.478452   1.000000
    8      -14.956411   1.000000
    9      -14.695426   1.000000
   10       -7.572039   1.000000
   11       -7.545565   1.000000
   12       -7.542573   1.000000
   13       -5.731757   1.000000
   14       -4.068592   1.000000
   15       -3.883519   1.000000
   16       -2.575068   1.000000
   17       -2.091838   1.000000
   18       -2.065627   1.000000
   19       -1.888775   1.000000
   20       -1.702461   1.000000
   21       -1.678565   1.000000
   22       -0.233729   1.000000
   23        4.779710   0.000000
   24        6.881550   0.000000
   25        7.340346   0.000000
   26        7.433504   0.000000
   27        7.740784   0.000000
   28        8.743553   0.000000
 
  0.0000000E+00  0.5000000E+00  0.0000000E+00  0.1666667E-01
    1      -22.327066   1.000000
    2      -22.290416   1.000000
    3      -22.241041   1.000000
    4      -22.219280   1.000000
    5      -22.189080   1.000000
    6      -21.749312   1.000000
    7      -15.478525   1.000000
    8      -14.956323   1.000000
    9      -14.695424   1.000000
   10       -7.572000   1.000000
   11       -7.545560   1.000000
   12       -7.542560   1.000000
   13       -5.729964   1.000000
   14       -4.068721   1.000000
   15       -3.885978   1.000000
   16       -2.575115   1.000000
   17       -2.091879   1.000000
   18       -2.064884   1.000000
   19       -1.888586   1.000000
   20       -1.702392   1.000000
   21       -1.679376   1.000000
   22       -0.234234   1.000000
   23        4.780211   0.000000
   24        6.836458   0.000000
   25        7.355601   0.000000
   26        7.760223   0.000000
   27        7.959777   0.000000
   28        8.388467   0.000000
 
  0.5666667E-01  0.5000000E+00  0.0000000E+00  0.1666667E-01
    1      -22.326975   1.000000
    2      -22.290470   1.000000
    3      -22.241041   1.000000
    4      -22.219100   1.000000
    5      -22.189037   1.000000
    6      -21.749252   1.000000
    7      -15.476176   1.000000
    8      -14.959141   1.000000
    9      -14.695496   1.000000
   10       -7.573224   1.000000
   11       -7.545987   1.000000
   12       -7.542710   1.000000
   13       -5.784724   1.000000
   14       -4.064636   1.000000
   15       -3.810064   1.000000
   16       -2.573655   1.000000
   17       -2.090624   1.000000
   18       -2.086979   1.000000
   19       -1.894575   1.000000
   20       -1.704854   1.000000
   21       -1.654668   1.000000
   22       -0.217908   1.000000
   23        4.764392   0.000000
   24        6.879998   0.000000
   25        7.187296   0.000000
   26        7.369908   0.000000
   27        7.552087   0.000000
   28        8.051609   0.000000
 
  0.1133333E+00  0.5000000E+00  0.0000000E+00  0.1666667E-01
    1      -22.326718   1.000000
    2      -22.290628   1.000000
    3      -22.241040   1.000000
    4      -22.218584   1.000000
    5      -22.188923   1.000000
    6      -21.749078   1.000000
    7      -15.469287   1.000000
    8      -14.967404   1.000000
    9      -14.695717   1.000000
   10       -7.576749   1.000000
   11       -7.548900   1.000000
   12       -7.541485   1.000000
   13       -5.922762   1.000000
   14       -4.052792   1.000000
   15       -3.611596   1.000000
   16       -2.569990   1.000000
   17       -2.139235   1.000000
   18       -2.086669   1.000000
   19       -1.911968   1.000000
   20       -1.712551   1.000000
   21       -1.594190   1.000000
   22       -0.167331   1.000000
   23        4.719417   0.000000
   24        6.935317   0.000000
   25        7.008125   0.000000
   26        7.353132   0.000000
   27        7.601780   0.000000
   28        8.583640   0.000000
 
  0.1700000E+00  0.5000000E+00  0.0000000E+00  0.1666667E-01
    1      -22.326348   1.000000
    2      -22.290893   1.000000
    3      -22.241043   1.000000
    4      -22.217806   1.000000
    5      -22.188772   1.000000
    6      -21.748808   1.000000
    7      -15.458297   1.000000
    8      -14.980500   1.000000
    9      -14.696055   1.000000
   10       -7.582156   1.000000
   11       -7.554193   1.000000
   12       -7.538840   1.000000
   13       -6.096736   1.000000
   14       -4.034371   1.000000
   15       -3.347208   1.000000
   16       -2.566028   1.000000
   17       -2.199599   1.000000
   18       -2.080648   1.000000
   19       -1.938891   1.000000
   20       -1.724435   1.000000
   21       -1.519305   1.000000
   22       -0.077890   1.000000
   23        4.651862   0.000000
   24        6.524278   0.000000
   25        7.082556   0.000000
   26        7.394429   0.000000
   27        7.736953   0.000000
   28        8.441375   0.000000
 
  0.2266667E+00  0.5000000E+00  0.0000000E+00  0.1666667E-01
    1      -22.325926   1.000000
    2      -22.291246   1.000000
    3      -22.241052   1.000000
    4      -22.216874   1.000000
    5      -22.188615   1.000000
    6      -21.748471   1.000000
    7      -15.443986   1.000000
    8      -14.997381   1.000000
    9      -14.696459   1.000000
   10       -7.588786   1.000000
   11       -7.560874   1.000000
   12       -7.535516   1.000000
   13       -6.271906   1.000000
   14       -4.011329   1.000000
   15       -3.066310   1.000000
   16       -2.564627   1.000000
   17       -2.254584   1.000000
   18       -2.072935   1.000000
   19       -1.972353   1.000000
   20       -1.738940   1.000000
   21       -1.443077   1.000000
   22        0.056455   1.000000
   23        4.571446   0.000000
   24        6.364743   0.000000
   25        7.086392   0.000000
   26        7.493794   0.000000
   27        7.690703   0.000000
   28        8.322881   0.000000
 
  0.2833333E+00  0.5000000E+00  0.0000000E+00  0.1666667E-01
    1      -22.325516   1.000000
    2      -22.291661   1.000000
    3      -22.241068   1.000000
    4      -22.215911   1.000000
    5      -22.188489   1.000000
    6      -21.748109   1.000000
    7      -15.427570   1.000000
    8      -15.016507   1.000000
    9      -14.696879   1.000000
   10       -7.595821   1.000000
   11       -7.568052   1.000000
   12       -7.532035   1.000000
   13       -6.428517   1.000000
   14       -3.986303   1.000000
   15       -2.806458   1.000000
   16       -2.568610   1.000000
   17       -2.296696   1.000000
   18       -2.063909   1.000000
   19       -2.008477   1.000000
   20       -1.754253   1.000000
   21       -1.373071   1.000000
   22        0.238765   1.000000
   23        4.489251   0.000000
   24        5.665484   0.000000
   25        7.170792   0.000000
   26        7.576564   0.000000
   27        7.820626   0.000000
   28        8.124684   0.000000
 
  0.3400000E+00  0.5000000E+00  0.0000000E+00  0.1666667E-01
    1      -22.325171   1.000000
    2      -22.292081   1.000000
    3      -22.241089   1.000000
    4      -22.215040   1.000000
    5      -22.188405   1.000000
    6      -21.747765   1.000000
    7      -15.410818   1.000000
    8      -15.035771   1.000000
    9      -14.697261   1.000000
   10       -7.602374   1.000000
   11       -7.574799   1.000000
   12       -7.528848   1.000000
   13       -6.555760   1.000000
   14       -3.962386   1.000000
   15       -2.594582   1.000000
   16       -2.578308   1.000000
   17       -2.323428   1.000000
   18       -2.053904   1.000000
   19       -2.042677   1.000000
   20       -1.768430   1.000000
   21       -1.314410   1.000000
   22        0.460752   1.000000
   23        4.413513   0.000000
   24        4.984927   0.000000
   25        7.149778   0.000000
   26        7.804286   0.000000
   27        8.043348   0.000000
   28        8.094775   0.000000
 
  0.3966667E+00  0.5000000E+00  0.0000000E+00  0.1666667E-01
    1      -22.324915   1.000000
    2      -22.292438   1.000000
    3      -22.241110   1.000000
    4      -22.214358   1.000000
    5      -22.188357   1.000000
    6      -21.747486   1.000000
    7      -15.396122   1.000000
    8      -15.052461   1.000000
    9      -14.697560   1.000000
   10       -7.607610   1.000000
   11       -7.580224   1.000000
   12       -7.526347   1.000000
   13       -6.647680   1.000000
   14       -3.942837   1.000000
   15       -2.590440   1.000000
   16       -2.445738   1.000000
   17       -2.337231   1.000000
   18       -2.070621   1.000000
   19       -2.043335   1.000000
   20       -1.779704   1.000000
   21       -1.270841   1.000000
   22        0.691327   1.000000
   23        4.354874   0.000000
   24        4.534879   0.000000
   25        7.337516   0.000000
   26        7.715281   0.000000
   27        8.053274   0.000000
   28        8.862963   0.000000
 
  0.4533333E+00  0.5000000E+00  0.0000000E+00  0.1666667E-01
    1      -22.324768   1.000000
    2      -22.292671   1.000000
    3      -22.241125   1.000000
    4      -22.213945   1.000000
    5      -22.188344   1.000000
    6      -21.747312   1.000000
    7      -15.386281   1.000000
    8      -15.063525   1.000000
    9      -14.697738   1.000000
   10       -7.610849   1.000000
   11       -7.583597   1.000000
   12       -7.524819   1.000000
   13       -6.700996   1.000000
   14       -3.930524   1.000000
   15       -2.599650   1.000000
   16       -2.363690   1.000000
   17       -2.342647   1.000000
   18       -2.088077   1.000000
   19       -2.034772   1.000000
   20       -1.786662   1.000000
   21       -1.245065   1.000000
   22        0.869126   1.000000
   23        4.228708   0.000000
   24        4.319706   0.000000
   25        6.886755   0.000000
   26        7.675094   0.000000
   27        8.265796   0.000000
   28        8.644323   0.000000
 
  0.5100000E+00  0.5000000E+00  0.0000000E+00  0.1666667E-01
    1      -22.324734   1.000000
    2      -22.292731   1.000000
    3      -22.241128   1.000000
    4      -22.213843   1.000000
    5      -22.188345   1.000000
    6      -21.747268   1.000000
    7      -15.383676   1.000000
    8      -15.066435   1.000000
    9      -14.697780   1.000000
   10       -7.611671   1.000000
   11       -7.584457   1.000000
   12       -7.524435   1.000000
   13       -6.714129   1.000000
   14       -3.927381   1.000000
   15       -2.602178   1.000000
   16       -2.346542   1.000000
   17       -2.341374   1.000000
   18       -2.092543   1.000000
   19       -2.032205   1.000000
   20       -1.788432   1.000000
   21       -1.238658   1.000000
   22        0.919973   1.000000
   23        4.146575   0.000000
   24        4.310598   0.000000
   25        7.434187   0.000000
   26        7.701010   0.000000
   27        8.253789   0.000000
   28        8.338899   0.000000
 
  0.5000000E+00  0.5000000E+00  0.0000000E+00  0.1666667E-01
    1      -22.324732   1.000000
    2      -22.292734   1.000000
    3      -22.241129   1.000000
    4      -22.213838   1.000000
    5      -22.188345   1.000000
    6      -21.747266   1.000000
    7      -15.383548   1.000000
    8      -15.066578   1.000000
    9      -14.697783   1.000000
   10       -7.611711   1.000000
   11       -7.584500   1.000000
   12       -7.524417   1.000000
   13       -6.714767   1.000000
   14       -3.927229   1.000000
   15       -2.602308   1.000000
   16       -2.346180   1.000000
   17       -2.340867   1.000000
   18       -2.092761   1.000000
   19       -2.032082   1.000000
   20       -1.788519   1.000000
   21       -1.238357   1.000000
   22        0.922507   1.000000
   23        4.142558   0.000000
   24        4.310125   0.000000
   25        6.888155   0.000000
   26        7.641297   0.000000
   27        8.386683   0.000000
   28        8.818317   0.000000
 
  0.4455556E+00  0.4444444E+00  0.0000000E+00  0.1666667E-01
    1      -22.324637   1.000000
    2      -22.292400   1.000000
    3      -22.240874   1.000000
    4      -22.214036   1.000000
    5      -22.188417   1.000000
    6      -21.747405   1.000000
    7      -15.389039   1.000000
    8      -15.062386   1.000000
    9      -14.695573   1.000000
   10       -7.608761   1.000000
   11       -7.581776   1.000000
   12       -7.525319   1.000000
   13       -6.677311   1.000000
   14       -3.935372   1.000000
   15       -2.592641   1.000000
   16       -2.394828   1.000000
   17       -2.343492   1.000000
   18       -2.083785   1.000000
   19       -2.034555   1.000000
   20       -1.779756   1.000000
   21       -1.257106   1.000000
   22        0.778296   1.000000
   23        4.272198   0.000000
   24        4.435243   0.000000
   25        7.416682   0.000000
   26        7.730000   0.000000
   27        8.402234   0.000000
   28        8.603692   0.000000
 
  0.3911111E+00  0.3888889E+00  0.0000000E+00  0.1666667E-01
    1      -22.324428   1.000000
    2      -22.291487   1.000000
    3      -22.240176   1.000000
    4      -22.214633   1.000000
    5      -22.188658   1.000000
    6      -21.747808   1.000000
    7      -15.404354   1.000000
    8      -15.050990   1.000000
    9      -14.688768   1.000000
   10       -7.601777   1.000000
   11       -7.573700   1.000000
   12       -7.528036   1.000000
   13       -6.566004   1.000000
   14       -3.957981   1.000000
   15       -2.574917   1.000000
   16       -2.535636   1.000000
   17       -2.339711   1.000000
   18       -2.058711   1.000000
   19       -2.038881   1.000000
   20       -1.754773   1.000000
   21       -1.304213   1.000000
   22        0.406615   1.000000
   23        4.603877   0.000000
   24        4.787985   0.000000
   25        7.058301   0.000000
   26        7.613292   0.000000
   27        8.225390   0.000000
   28        8.344186   0.000000
 
  0.3366667E+00  0.3333333E+00  0.0000000E+00  0.1666667E-01
    1      -22.324222   1.000000
    2      -22.290208   1.000000
    3      -22.239160   1.000000
    4      -22.215587   1.000000
    5      -22.189086   1.000000
    6      -21.748421   1.000000
    7      -15.426657   1.000000
    8      -15.035310   1.000000
    9      -14.677023   1.000000
   10       -7.593961   1.000000
   11       -7.562155   1.000000
   12       -7.532509   1.000000
   13       -6.383762   1.000000
   14       -3.990246   1.000000
   15       -2.755185   1.000000
   16       -2.568010   1.000000
   17       -2.302038   1.000000
   18       -2.041772   1.000000
   19       -2.021830   1.000000
   20       -1.717090   1.000000
   21       -1.362340   1.000000
   22       -0.084998   1.000000
   23        5.069250   0.000000
   24        5.280657   0.000000
   25        7.082294   0.000000
   26        7.463774   0.000000
   27        7.689127   0.000000
   28        8.110160   0.000000
 
  0.2822222E+00  0.2777778E+00  0.0000000E+00  0.1666667E-01
    1      -22.324158   1.000000
    2      -22.288832   1.000000
    3      -22.237990   1.000000
    4      -22.216819   1.000000
    5      -22.189693   1.000000
    6      -21.749172   1.000000
    7      -15.452518   1.000000
    8      -15.018688   1.000000
    9      -14.660307   1.000000
   10       -7.586814   1.000000
   11       -7.551966   1.000000
   12       -7.538486   1.000000
   13       -6.135182   1.000000
   14       -4.026250   1.000000
   15       -3.011994   1.000000
   16       -2.592717   1.000000
   17       -2.222964   1.000000
   18       -2.042566   1.000000
   19       -1.978805   1.000000
   20       -1.672057   1.000000
   21       -1.419492   1.000000
   22       -0.614013   1.000000
   23        5.625686   0.000000
   24        5.804355   0.000000
   25        7.042957   0.000000
   26        7.238142   0.000000
   27        7.689966   0.000000
   28        7.947482   0.000000
 
  0.2277778E+00  0.2222222E+00  0.0000000E+00  0.1666667E-01
    1      -22.324314   1.000000
    2      -22.287584   1.000000
    3      -22.236836   1.000000
    4      -22.218201   1.000000
    5      -22.190442   1.000000
    6      -21.749973   1.000000
    7      -15.478655   1.000000
    8      -15.003824   1.000000
    9      -14.639631   1.000000
   10       -7.580755   1.000000
   11       -7.547994   1.000000
   12       -7.545056   1.000000
   13       -5.826288   1.000000
   14       -4.060776   1.000000
   15       -3.272484   1.000000
   16       -2.653116   1.000000
   17       -2.127571   1.000000
   18       -2.041475   1.000000
   19       -1.934824   1.000000
   20       -1.625747   1.000000
   21       -1.471054   1.000000
   22       -1.110228   1.000000
   23        6.126225   0.000000
   24        6.277967   0.000000
   25        6.656554   0.000000
   26        7.140189   0.000000
   27        7.298123   0.000000
   28        7.853752   0.000000
 
  0.1733333E+00  0.1666667E+00  0.0000000E+00  0.1666667E-01
    1      -22.324671   1.000000
    2      -22.286610   1.000000
    3      -22.235832   1.000000
    4      -22.219566   1.000000
    5      -22.191238   1.000000
    6      -21.750730   1.000000
    7      -15.502233   1.000000
    8      -14.992174   1.000000
    9      -14.617457   1.000000
   10       -7.576055   1.000000
   11       -7.553322   1.000000
   12       -7.549501   1.000000
   13       -5.464613   1.000000
   14       -4.090036   1.000000
   15       -3.505826   1.000000
   16       -2.796002   1.000000
   17       -2.057364   1.000000
   18       -2.035547   1.000000
   19       -1.894573   1.000000
   20       -1.583725   1.000000
   21       -1.546826   1.000000
   22       -1.447203   1.000000
   23        5.961249   0.000000
   24        6.726483   0.000000
   25        6.858673   0.000000
   26        7.124702   0.000000
   27        7.298491   0.000000
   28        7.379869   0.000000
 
  0.1188889E+00  0.1111111E+00  0.0000000E+00  0.1666667E-01
    1      -22.325117   1.000000
    2      -22.285951   1.000000
    3      -22.235073   1.000000
    4      -22.220727   1.000000
    5      -22.191954   1.000000
    6      -21.751354   1.000000
    7      -15.520973   1.000000
    8      -14.984045   1.000000
    9      -14.597353   1.000000
   10       -7.572841   1.000000
   11       -7.559887   1.000000
   12       -7.556439   1.000000
   13       -5.060213   1.000000
   14       -4.111933   1.000000
   15       -3.689398   1.000000
   16       -3.087738   1.000000
   17       -2.046790   1.000000
   18       -2.027919   1.000000
   19       -1.862106   1.000000
   20       -1.677464   1.000000
   21       -1.550463   1.000000
   22       -1.498000   1.000000
   23        5.711700   0.000000
   24        6.574811   0.000000
   25        6.605327   0.000000
   26        7.253692   0.000000
   27        7.364923   0.000000
   28        7.462692   0.000000
 
  0.6444444E-01  0.5555556E-01  0.0000000E+00  0.1666667E-01
    1      -22.325505   1.000000
    2      -22.285593   1.000000
    3      -22.234612   1.000000
    4      -22.221528   1.000000
    5      -22.192463   1.000000
    6      -21.751772   1.000000
    7      -15.533245   1.000000
    8      -14.979173   1.000000
    9      -14.583097   1.000000
   10       -7.571048   1.000000
   11       -7.565598   1.000000
   12       -7.562541   1.000000
   13       -4.631564   1.000000
   14       -4.125580   1.000000
   15       -3.811155   1.000000
   16       -3.491934   1.000000
   17       -2.053089   1.000000
   18       -2.030578   1.000000
   19       -1.840557   1.000000
   20       -1.703000   1.000000
   21       -1.529097   1.000000
   22       -1.497204   1.000000
   23        5.533554   0.000000
   24        6.443731   0.000000
   25        6.479868   0.000000
   26        7.255245   0.000000
   27        7.264395   0.000000
   28        7.315421   0.000000
 
  0.1000000E-01  0.2775558E-16  0.0000000E+00  0.1666667E-01
    1      -22.325693   1.000000
    2      -22.285494   1.000000
    3      -22.234467   1.000000
    4      -22.221853   1.000000
    5      -22.192664   1.000000
    6      -21.751934   1.000000
    7      -15.538017   1.000000
    8      -14.977171   1.000000
    9      -14.577538   1.000000
   10       -7.570508   1.000000
   11       -7.568655   1.000000
   12       -7.564741   1.000000
   13       -4.281614   1.000000
   14       -4.130741   1.000000
   15       -3.942475   1.000000
   16       -3.758553   1.000000
   17       -2.056650   1.000000
   18       -2.029986   1.000000
   19       -1.831958   1.000000
   20       -1.702756   1.000000
   21       -1.521332   1.000000
   22       -1.492344   1.000000
   23        5.463142   0.000000
   24        6.393349   0.000000
   25        6.428805   0.000000
   26        7.236221   0.000000
   27        7.262102   0.000000
   28        7.287498   0.000000
 
  0.2000000E-01  0.0000000E+00  0.0000000E+00  0.1666667E-01
    1      -22.325671   1.000000
    2      -22.285483   1.000000
    3      -22.234460   1.000000
    4      -22.221833   1.000000